350
Lattice="29.3789669851 0.0 0.0 0.0 28.8560212723 0.0 0.0 0.0 29.4021317586" Properties=species:S:1:pos:R:3:forces:R:3:local_energy:R:1:is_surface:L:1 energy=-1460.940528 energy_soap=-618.46813561 energy_2b=-621.93463864 energy_3b=0.0 energy_core_pot=0.0 energy_vdw=0.0 energy_exp=0.0 energy_xps=0.0 virial="0.33077042 -0.36012072 -0.13511337 -0.36012072 0.29252474 0.24673415 -0.13511337 0.24673415 -0.66253634" stress="-1.327e-05 1.445e-05 5.42e-06 1.445e-05 -1.174e-05 -9.9e-06 5.42e-06 -9.9e-06 2.658e-05" volume=24925.954051 pbc="T T T"
Ni      16.96925371      13.95606144      12.26231534      -0.00066425       0.00033259       0.00003309      -6.39611753  F
Ni      13.11159898      14.54817181      21.54566469      -0.00023565      -0.00018717       0.00029576      -6.06760103  F
Cu      19.76788784      12.15110421      11.65053672      -0.00334416      -0.00169852      -0.00319313      -3.81584406  F
Cu       9.75624936      13.97755390      11.42358174      -0.00012125       0.00093264       0.00061854      -3.86421484  F
Cu      15.84913712      14.00560349       5.79591454      -0.00112569       0.00044952       0.00061681      -2.90177271  T
Cu      19.80842415      18.58118395      15.83703593       0.00180498      -0.00138175      -0.00154353      -3.74746121  F
Ni       8.96020694      18.59586385      18.06278965      -0.00160997       0.00073978      -0.00043972      -5.98872530  T
Cu      14.69060378      14.18552259      23.36927856       0.00028792      -0.00020669       0.00018186      -3.05905166  T
Cu      17.69583305      23.29449016      15.11940044      -0.00135137       0.00044385       0.00012459      -2.87145240  T
Ni       7.14138032      15.03069005      17.35123693      -0.00184515       0.00034107      -0.00038228      -5.88042932  T
Cu      10.37103893      16.53756454       7.99709948       0.00089591       0.00088782       0.00042487      -3.04941219  T
Cu      18.66800704       8.93292339      18.74632693       0.00103845      -0.00001846      -0.00100187      -3.32304255  F
Cu      16.66064342      21.71766524      10.61973359      -0.00015858       0.00045576       0.00041623      -3.12330534  T
Cu      10.78695282      10.87588945      16.83617050      -0.00035400      -0.00002296       0.00006865      -3.47537918  F
Cu      12.65878712      10.29056438       6.32549202       0.00086065       0.00031862       0.00065692      -2.77941991  T
Ni      14.78915710      16.83279281      17.76437900      -0.00093124      -0.00046491       0.00015018      -6.38851983  F
Cu      15.67515165       6.47641777      10.68110221       0.00112928      -0.00430730       0.00012573      -2.89953388  T
Ni      21.14226964      14.99631172      17.02559889      -0.00079973      -0.00289178       0.00109099      -6.28992460  F
Ni      10.51835547      17.34181396      16.70056705      -0.00088978       0.00059771       0.00110283      -6.46390689  F
Cu      12.84412159      11.05706821      18.39234770      -0.00093584       0.00060671       0.00032566      -4.08012628  F
Cu      15.30698644      22.89024291      16.38247561      -0.00032145       0.00096707       0.00085229      -3.17195993  T
Ni      14.03770391      19.10575365      18.32136408      -0.00130500       0.00103647       0.00209923      -6.40920933  F
Cu      15.57197900      21.87331678      21.20530515       0.00004853       0.00094758       0.00018157      -2.84979688  T
Ni      12.96094559      11.27066187      15.91110798      -0.00017067      -0.00116457       0.00079058      -6.50909350  F
Cu      16.06551104       9.65726991      19.19729146       0.00090821       0.00005630      -0.00026806      -3.99472632  F
Ni      19.73993498      16.04140223      13.98560688       0.00653112      -0.00581624      -0.00193110      -6.22157770  F
Cu       8.39396802      19.89228126      11.12438364       0.00188972      -0.00011236      -0.00055620      -2.60875708  T
Cu      17.28368742      11.54814896      11.09265655      -0.00018773      -0.00102753       0.00027134      -4.33696165  F
Cu      17.43241803      19.18247830      15.99658876       0.00135289       0.00026147       0.00144543      -3.80050536  F
Cu      11.20559619      10.10901126      10.50868727       0.00002258       0.00023279       0.00107304      -4.06630973  F
Ni      13.56463083      13.55075850      19.45971039      -0.00099397       0.00005080      -0.00011088      -6.06691743  F
Cu       8.32570780      17.94481635      20.30270144      -0.00150392       0.00018733      -0.00052974      -2.91855701  T
Cu      21.37069719      10.07677850      13.09023468       0.00481252      -0.00434613       0.00016566      -3.52727908  T
Cu      14.16592520      22.09037289      10.88762427       0.00171356      -0.00027641       0.00191450      -3.16232037  T
Cu      18.32135810       5.79701137      13.11867299       0.00043310       0.00049387      -0.00164578      -2.88775997  T
Ni      14.92187587      12.41142821      15.25639939       0.00001882      -0.00126462       0.00040723      -6.21821919  F
Cu       9.75083607      18.49326175      12.55203150       0.00114655       0.00081080       0.00132690      -3.51431933  F
Cu       7.56705465      14.62458936      19.69436766      -0.00205968      -0.00082789      -0.00009783      -3.34311651  T
Ni      19.04579873      13.95545441      13.26340936      -0.00175429      -0.00582226       0.00277065      -6.22965721  F
Cu       9.10434006      15.31493983      16.09928176      -0.00082927       0.00079913       0.00031828      -3.59397544  F
Ni      13.09319680      18.42911848      10.26680846       0.00040948       0.00008470       0.00144623      -6.22186046  F
Ni      18.48976691      14.96233907       8.67982169       0.00015943      -0.00038905       0.00048210      -6.03433691  F
Cu      18.83479414      17.13444826       9.97497919      -0.00060737       0.00056334       0.00247950      -3.85559385  F
Cu       7.00259960      10.70986314      13.88202223       0.00013107      -0.00021467      -0.00143828      -2.93376587  T
Ni      10.98164841      15.22026815      17.40082883      -0.00332706       0.00103069       0.00409036      -5.80872073  F
Cu       9.65986432      20.00507906      19.90244710      -0.00055335       0.00005029      -0.00061618      -3.20251401  T
Cu       8.68622237      16.37318369      11.82720786       0.00052332       0.00114340      -0.00028283      -3.46654327  F
Cu      17.09468414      14.82822801      23.21773159      -0.00019384       0.00066199      -0.00168950      -3.10568283  T
Cu      22.51241817      18.67988221      16.35886408      -0.00150947       0.00037035      -0.00191446      -3.12940526  T
Ni      16.89338815      11.34282441       8.60999937      -0.00136643       0.00036101      -0.00025342      -6.04865852  F
Cu      12.56651165      17.16429382       6.58024467       0.00063292       0.00104221       0.00171362      -2.80875695  T
Ni      17.55299576      10.53652289      17.44878683       0.00043146      -0.00013178      -0.00052333      -6.15453280  F
Cu      18.73265871       9.95439639       9.39862490      -0.00227228      -0.00042665       0.00221767      -3.66223522  T
Cu       7.25923873      18.16379131      12.36610908       0.00068989       0.00129216      -0.00012317      -2.87709596  T
Ni      18.18116932      11.66052821      13.40938642      -0.00059800      -0.00217664      -0.00014664      -6.16091985  F
Cu      15.16236541       7.92292116       8.61017109      -0.00001809      -0.00102090       0.00099990      -3.27011328  T
Cu      13.10265048      23.25852322      17.99512002      -0.00021052      -0.00017435       0.00048611      -2.70989604  T
Cu      21.55576882      16.72748984      15.42604471       0.00108341      -0.00365017       0.00176952      -3.65709530  F
Cu      10.91275824      19.70382233      10.84175164       0.00160226       0.00103704       0.00148494      -3.63809236  T
Ni      15.87648352      19.04687459      13.90784768       0.00305877      -0.00110841       0.00449959      -6.22775805  F
Cu      14.25977174      19.85949022      21.57655999      -0.00044707       0.00044316      -0.00187624      -3.02030354  T
Cu      11.97837394      12.34564520      20.58553088      -0.00090731       0.00071338      -0.00006440      -3.74757941  F
Cu      11.68621528      21.86913191      11.53630822      -0.00033317       0.00329643      -0.00186504      -2.94459576  T
Cu      13.23925246       8.41829167      21.23564372       0.00173135       0.00033360      -0.00161417      -3.00721235  T
Ni       9.12587490      11.36931429      10.97418749       0.00021556      -0.00009037       0.00054620      -6.24245801  F
Ni      16.25647045      10.97968038      21.31380087       0.00063627       0.00026633      -0.00100866      -5.94534872  F
Cu      18.05326096      20.24300350      18.32168656       0.00061867       0.00004293       0.00128111      -3.43302961  F
Cu      11.33848387      21.73191329      18.83819883      -0.00059128       0.00004708      -0.00042134      -3.09789424  T
Cu      21.26536392      12.45817114      21.30082037      -0.00201076       0.00171560       0.00059587      -2.91511676  T
Cu      21.08009649       8.90623809      19.14131215       0.00054069       0.00093833       0.00025749      -2.68698048  T
Ni      15.10254222      14.28286188      13.76041563      -0.00198279      -0.00058908      -0.00044017      -6.10422545  F
Ni       7.00395212      15.46142306      14.93218755      -0.00052609       0.00079725      -0.00036851      -5.95725356  F
Cu      20.10012883      13.60022542       7.50979082      -0.00157309      -0.00144098      -0.00027015      -3.12867370  T
Cu      11.75023514       9.37496039      14.93413165       0.00064714      -0.00007620      -0.00042809      -3.64924801  F
Cu      20.23216962       8.35112965      16.88933692       0.00200946      -0.00016347       0.00112217      -3.34212651  T
Cu      13.99956943      15.02544472       7.01843727       0.00013564       0.00047122       0.00012200      -3.46029054  T
Cu       9.05346917      13.53664555      17.90208534      -0.00200719       0.00009039      -0.00019188      -3.70907057  F
Cu       9.67965055       8.00467246      11.56859520       0.00069976       0.00132495      -0.00063640      -3.19847373  T
Ni      10.87745914      12.53804442       9.70700634      -0.00021315       0.00082813       0.00070782      -6.48946519  F
Ni      13.22352258      16.67838091      15.81212318       0.00067148       0.00122246       0.00059502      -6.36400971  F
Cu       9.98672117      11.91067738      21.84605190      -0.00040091      -0.00062123      -0.00119733      -3.03332538  T
Cu      11.01824806      22.56561617      14.09040618      -0.00001146       0.00063408       0.00042475      -2.83977387  T
Cu       5.45208662      16.44339814      16.49012735      -0.00136650       0.00070397      -0.00135693      -2.87688835  T
Cu      14.62961260      14.93766876       9.63813334       0.00104295      -0.00003684       0.00018933      -3.79498218  F
Ni      19.09188026      16.34319774      16.23070162       0.00018464       0.00041452      -0.00329906      -6.28120624  F
Cu      17.47833361      22.43859289      19.78046980       0.00057467       0.00046717       0.00131540      -2.93401601  T
Cu       9.68197356      21.00016396      12.79822225       0.00068899       0.00128986      -0.00111406      -3.15469472  T
Cu      11.57771975       9.49827058      19.81911055       0.00035310      -0.00086635      -0.00079900      -3.35523244  T
Cu      19.40033986      18.73732778       8.14889246       0.00122904      -0.00063115       0.00162441      -2.67307693  T
Cu      17.80739297      19.46983209       9.87731117       0.00035504       0.00067070       0.00102078      -3.65726868  T
Cu      11.69214610      14.68684474       7.04904307      -0.00010269       0.00024813       0.00051745      -3.04156891  T
Cu      13.01811236      23.00721585      15.55422899      -0.00031035       0.00060522       0.00029001      -3.04093906  T
Cu      11.25155801      14.95221599       9.64977133       0.00006865       0.00064309       0.00046692      -3.76966622  F
Cu      19.15517807      18.58898575      21.99731494       0.00012043      -0.00102075      -0.00033648      -2.92572289  T
Cu       9.03292921      21.55004546      15.17413486       0.00041373       0.00036807      -0.00038873      -2.81358852  T
Cu      22.28230829      16.41988157      13.16262620       0.00326760      -0.00260692       0.00158982      -3.44742549  T
Ni      11.22978874      15.55312283      15.05758132       0.00116362      -0.00055640       0.00393212      -6.29934902  F
Cu      23.16531932      13.88202870      18.04830336      -0.00031210       0.00294429      -0.00527036      -2.95453580  T
Cu      15.86725164       6.51322420      13.29029820      -0.00015075       0.00009386      -0.00043667      -3.24677271  T
Cu       5.52839553      13.85174370      16.00992897      -0.00099788       0.00024934      -0.00102741      -3.01127508  T
Ni       7.78486807      17.28041125      16.49656534      -0.00150861       0.00046735      -0.00006959      -6.02749353  F
Cu      17.03601983       6.38008647      15.52524170       0.00141009       0.00039897      -0.00093044      -3.26393075  T
Cu      18.06632795      15.37364211       6.30192896      -0.00055919      -0.00042489      -0.00024064      -2.94397205  T
Cu       9.10411792      16.12251866      18.57548292      -0.00380570       0.00082790       0.00043225      -3.59526630  F
Cu       6.30071087      11.49987001      16.01792244      -0.00002809       0.00010328      -0.00157196      -2.95545177  T
Cu      21.97218445      15.85998212      19.28150564       0.00022280      -0.00071995      -0.00162465      -3.18670589  T
Cu      14.64925537      12.72253136      21.47951916       0.00004678       0.00036970      -0.00035550      -3.60449053  F
Cu      15.11812943      18.46364041      23.30522584      -0.00071962       0.00077098      -0.00153889      -2.99874693  T
Cu      21.53071849       8.27502098      14.84078143       0.00376842      -0.00258731       0.00328007      -3.01227682  T
Cu      15.39266432      16.27936635      24.23301326      -0.00048039       0.00090253      -0.00138335      -2.80127308  T
Ni      12.35296975      13.99816891      11.47891617      -0.00106428       0.00056917       0.00064307      -6.18192821  F
Cu      15.47969637      12.09066448      19.20829246      -0.00044199       0.00078753       0.00024666      -3.96043219  F
Ni      20.86495291      17.32555687      17.71265316      -0.00077329      -0.00046544       0.00063130      -6.14936353  F
Cu      19.69780048      21.84310030      18.72435948      -0.00130204       0.00236166      -0.00062625      -2.89344466  T
Cu      15.38558323      17.81357244      20.36336106      -0.00081227       0.00013984       0.00030983      -4.13388901  F
Cu      22.38165700      18.44190422      18.93555347       0.00110900      -0.00033905      -0.00144584      -2.89802652  T
Cu      18.22980813      15.38656880      20.91703242      -0.00068596       0.00095833      -0.00170303      -3.57256330  F
Cu      22.02428891      11.29169304      18.85950869       0.00078920       0.00012314      -0.00102174      -3.11009391  T
Cu      14.61801210       6.52961152      15.50008001       0.00157387      -0.00023741      -0.00015413      -3.33991412  T
Ni      12.11568791      18.04065127      12.35160276       0.00076198      -0.00014278       0.00147168      -6.33662079  F
Ni      15.33616708      21.15914021      12.73813099      -0.00034832      -0.00460405       0.00162597      -5.95722929  F
Cu      12.91374637      18.23891553      20.26221639      -0.00179894      -0.00067762       0.00051171      -3.77402023  F
Ni      13.29469737      20.09235072      12.10378857      -0.00226928       0.00074410      -0.00106357      -6.43817448  F
Cu      11.32487257      21.24065436      16.26001068      -0.00005401       0.00071182       0.00017714      -3.55615219  T
Ni      21.22305965      10.56819846      15.54044753       0.00300954      -0.00241101      -0.00094097      -6.08127435  F
Cu      15.02648385      21.22500208       8.76897705       0.00056244       0.00170842       0.00012618      -2.62426602  T
Cu      22.42218607       9.44702350      17.18647142       0.00332804      -0.00087136       0.00126181      -2.95757209  T
Cu      13.64647728       9.38073817      10.06724063      -0.00118385      -0.00039230      -0.00011350      -3.91482999  F
Ni      19.07127434      18.60268440      11.89450132      -0.00034457      -0.00152306       0.00293751      -6.34635160  F
Ni       7.94229271      13.19425342      15.69655446      -0.00079623       0.00086509      -0.00001977      -6.41552211  F
Ni      20.56431552      18.20934086      13.62794813       0.00278837      -0.00194213      -0.00000494      -6.11817457  F
Cu      21.37267073      12.78076261       9.83946830       0.00101928       0.00031876      -0.00083203      -3.07283220  T
Cu      17.40642531       7.85978290      11.57345403      -0.00169216       0.00000215      -0.00076097      -3.58363104  F
Cu      12.56866525      10.19116910      12.71306963      -0.00069565      -0.00001585       0.00051533      -3.94603086  F
Cu      13.61731640      12.48014153       6.40986880      -0.00025045       0.00083471      -0.00007154      -3.24109869  T
Ni      17.20929776      19.97806701      12.21601440      -0.00036857      -0.00153957      -0.00022665      -6.07628407  F
Cu      21.00018705      10.36524001      10.59631174      -0.00095562      -0.00295660       0.00350738      -3.00304819  T
Cu      19.94974627      10.70307869      20.18975029       0.00034204       0.00118288      -0.00108517      -3.24982187  T
Cu      20.79200188      15.09435599       9.45773114      -0.00461138      -0.00042638       0.00127211      -3.48521929  T
Cu      18.64245345      11.42434228      22.14596593       0.00054339       0.00065807      -0.00225828      -3.35830737  T
Cu      19.32821066      14.05290370      15.66875627      -0.00012897       0.00032952       0.00231776      -4.15708259  F
Ni      20.37743386      16.45478952      11.63457410       0.00065904      -0.00333512       0.00003557      -6.37528211  F
Cu       6.87519936      11.91574635      11.77940206      -0.00005680       0.00067852      -0.00076539      -3.04283939  T
Ni      14.11516214      12.81335746      17.32024852      -0.00074955       0.00017594       0.00003956      -6.03450997  F
Cu       8.96819967      17.09861136      14.36478842       0.00060620       0.00072665       0.00095310      -3.93875759  F
Ni      16.22191006      15.25962713       7.91234117       0.00145628      -0.00091455       0.00062390      -5.97921999  F
Cu      14.70004616       6.97730099      19.84755270       0.00226104       0.00146156      -0.00175116      -2.80715591  T
Cu      12.65694089      15.42425329      23.72710795      -0.00049626      -0.00258496       0.00056571      -3.01287832  T
Cu       9.34357471      20.93030953      17.61479007      -0.00093753       0.00059493      -0.00056432      -3.04772229  T
Cu      10.73409302       7.57160216      13.71589935       0.00019652       0.00001898      -0.00048249      -3.45979942  T
Cu       8.79199206      15.54487568       9.63976793      -0.00036340       0.00052569      -0.00023642      -3.04269124  T
Cu      20.04951442       7.76766104      12.95813741       0.00385232      -0.00151234       0.00144936      -3.14760747  T
Cu      10.41159090      13.25244550      15.85170914      -0.00107468       0.00044731       0.00079927      -4.07206368  F
Ni      18.91465853      14.36541544      10.89743110       0.00098013       0.00195945       0.00207358      -6.48829750  F
Cu       8.29718629      11.26540890      17.46969149      -0.00102509      -0.00036532       0.00053910      -3.47041462  T
Ni      15.89063425      12.07053542      13.16675204      -0.00099198      -0.00060303      -0.00012536      -6.11457827  F
Cu      13.54302456      21.12590055      19.66107227      -0.00030196       0.00203916       0.00003642      -3.57394772  T
Cu      23.18221759      16.42261234      17.27044937      -0.00199387       0.00207247      -0.00110544      -3.12755490  T
Ni      15.37706278      14.55293480      18.42808044      -0.00167141       0.00069497      -0.00043782      -6.16646576  F
Cu       8.43894486       8.61978876      13.93183215      -0.00029969       0.00003662      -0.00043622      -3.13923147  T
Cu      16.67952402      19.65312480      21.95992485      -0.00084416       0.00032455      -0.00105252      -3.08234840  T
Cu       7.50909259      19.69811395      16.42153357      -0.00046037       0.00057167      -0.00120061      -3.21087894  T
Cu      11.38962360      18.64504820       8.55895354       0.00058565       0.00029794       0.00198602      -3.26251512  T
Cu      13.50567185      21.15010645      17.17090277       0.00066367       0.00022765       0.00016253      -3.15829833  F
Cu      21.22721130      20.41589467      15.03166157      -0.00193459       0.00040997      -0.00043418      -3.21909462  T
Ni      20.42653401      12.19516033      14.00227194       0.00132180      -0.00367640      -0.00252300      -6.35543288  F
Cu      19.23572583      13.75461765      22.69642146      -0.00016955       0.00081805      -0.00246069      -3.10648097  T
Cu      23.36001741       9.92803554      14.92669079       0.00358599       0.00006564       0.00214019      -2.62631807  T
Ni      11.01950535      17.12874789      10.45223928       0.00058865      -0.00003569       0.00184330      -6.28901092  F
Cu      16.95756979      16.29319051      18.86698181      -0.00045480       0.00048573      -0.00066604      -3.93132649  F
Cu      17.75697663      18.39870428      20.12526863      -0.00075988       0.00000115       0.00028069      -3.37710881  F
Cu       8.03400580      13.15913568       9.75495764       0.00040731       0.00012259       0.00035300      -3.26382680  T
Cu      18.65749164      17.91604252      17.95686377       0.00022834       0.00227393      -0.00178088      -3.77917851  F
Ni      17.36567996      13.87214955      19.19631915      -0.00122534       0.00069196      -0.00140879      -6.20367573  F
Cu       6.47136269      13.30531510      13.79202671      -0.00010844       0.00023244      -0.00044093      -3.32826013  T
Cu      19.94929688      16.42171823       7.57540158      -0.00093150       0.00055663       0.00000501      -2.90906676  T
Cu       7.77492626       9.56463092      11.76828634      -0.00040316      -0.00019761      -0.00085896      -3.29089770  T
Ni      16.73867512      13.47888519       9.73661654       0.00049646       0.00058305       0.00125068      -6.46915692  F
Cu      13.24468784      22.38747994      13.20407069      -0.00060572      -0.00174649       0.00024921      -3.24918653  T
Cu       9.51435063       9.25585013      18.24687191       0.00024739      -0.00030239      -0.00055314      -3.19338963  T
Cu      12.63231428      18.50526278      22.76692299      -0.00069508       0.00081499      -0.00081390      -2.97375025  T
Ni      15.43448357      15.81948145      12.06616359       0.00091123       0.00053301       0.00039493      -6.32274853  F
Ni      13.84406337      16.02024005      19.77419264      -0.00079026       0.00040899       0.00058154      -6.22582134  F
Cu      11.79199442      20.21971886      20.98989730      -0.00031293       0.00044158      -0.00108613      -3.01089147  T
Cu       7.50977716       9.28626285      16.20680330      -0.00052928      -0.00000599      -0.00054958      -2.71594580  T
Ni      12.86835172      16.50542124       8.71845001      -0.00000555      -0.00056894       0.00136589      -6.20728765  F
Cu      12.64070803      12.55323273      22.99170903       0.00042415      -0.00026176      -0.00027386      -3.08192955  T
Cu      13.35589441      12.45263365      13.33604110      -0.00082498      -0.00071616       0.00033466      -4.28149505  F
Cu      15.96971547       5.97099248      17.81318494       0.00143324       0.00089676      -0.00133733      -2.84660336  T
Ni      12.42599304      17.22152239      18.08077759      -0.00031013       0.00033054       0.00026213      -6.29262883  F
Ni      17.14569950      13.22877835      14.86574296      -0.00020740      -0.00036726       0.00054186      -6.34822954  F
Cu       9.60527162      13.92264547       8.00918173       0.00009387       0.00030318       0.00053390      -3.06704004  T
Cu      19.34745394      16.26464298      22.78546020      -0.00192696      -0.00039550      -0.00026974      -2.76226971  T
Cu      19.31081989      15.28477002      18.58625519      -0.00104684      -0.00033308      -0.00125361      -4.04477994  F
Cu      15.62491006       8.63962134      21.47700305       0.00159787       0.00037768      -0.00065152      -3.17215998  T
Cu      23.89822593      16.69701337      14.94550060       0.00241102       0.01466241       0.00134641      -2.74122708  T
Cu      16.25623817      12.30544503      23.43490110       0.00164103       0.00034452      -0.00129899      -3.23830771  T
Ni      15.23692304      16.74105204      14.30236210      -0.00100958      -0.00016442       0.00123512      -6.30833742  F
Cu      20.04354226      10.66604161      17.66787496       0.00092554       0.00066096      -0.00121231      -3.80941016  F
Ni      15.25122990      13.06552954       7.92981328      -0.00030904       0.00002762       0.00077509      -6.09358067  F
Cu      20.78644084      20.00272230      17.50588701       0.00102424       0.00229887      -0.00099577      -3.36534579  T
Cu      11.16725433      12.22152828       7.12905481       0.00004594       0.00002222       0.00023603      -3.12571935  T
Cu      11.63589245      13.06778050      17.99286755      -0.00110784       0.00054649       0.00007057      -3.66608780  F
Cu      17.58113361       7.69646377       9.19557340       0.00011448      -0.00102044      -0.00061819      -2.84686314  T
Ni      12.90060461      13.80322673      15.41570650      -0.00036864      -0.00209718       0.00002876      -6.35445640  F
Cu      19.69329769       8.05149050      10.53744407      -0.00117415      -0.00209555       0.00021108      -2.82322858  T
Ni      14.93196549      11.69265794       9.75399769      -0.00038426       0.00029835       0.00063780      -6.44529599  F
Ni      16.70838221      21.18202564      14.83797814      -0.00006567       0.00038619       0.00196699      -6.33739092  F
Ni      17.47902985      14.76888864      16.96379579      -0.00069221      -0.00012279      -0.00097475      -6.17898468  F
Cu      22.64570747      15.92449662      10.83746093       0.00466483      -0.00499185      -0.00172195      -2.92080106  T
Cu      20.94686858      20.35708529      12.60481291       0.00069186       0.00020926      -0.00129213      -3.25333210  T
Cu      16.94410274       9.28150985       7.47473235      -0.00014096      -0.00042753       0.00081737      -3.07578035  T
Ni      11.23800125      11.61698712      14.40101666      -0.00012704       0.00063912       0.00105544      -6.00764643  F
Cu      18.95932377       9.78390374      12.00240449      -0.00005747      -0.00504757       0.00386842      -3.29378481  F
Cu      23.34782890      11.76654404      16.71081060       0.00154637      -0.00028428      -0.00170205      -3.10547755  T
Cu      13.42886073       7.91311101      13.88781237       0.00246497       0.00090748      -0.00104863      -3.59861353  F
Ni      15.78395019       8.53292699      14.82319931       0.00097494      -0.00042930      -0.00043814      -6.40481167  F
Cu      17.65980067      13.22927660       7.25513334      -0.00077030      -0.00001967       0.00052695      -3.52759040  T
Cu      21.20172891      14.23400785      11.89509425      -0.00105659       0.00094156      -0.00179614      -3.50614059  F
Ni      19.26542886      13.17198958      20.36971439      -0.00055099       0.00164230      -0.00229342      -6.04976945  F
Ni      17.83170032       7.88682548      13.85333824       0.00145337       0.00079807      -0.00068313      -5.74597779  F
Cu      12.06098954       6.98757446      15.71519342       0.00180234       0.00022117      -0.00169294      -2.87789575  T
Cu      20.93753545      22.25705684      16.58439588      -0.00135814       0.00263020       0.00035658      -2.73295662  T
Ni      16.55610027      12.63341820      17.08767590      -0.00031302      -0.00065013       0.00001015      -6.54471421  F
Ni      10.12699891       9.98882890      12.92978040      -0.00062891       0.00073246       0.00133845      -6.43504434  F
Cu      13.23766813      15.01069880      17.54682776      -0.00260352       0.00001559      -0.00032907      -3.75213036  F
Cu      12.95919583      13.42397852       8.81585639       0.00004071       0.00083777       0.00098552      -3.62970751  F
Ni      13.79036150       8.92397110      18.75735084       0.00078361       0.00100112      -0.00114590      -5.99739073  F
Ni      15.12228734      10.61050915      17.04465583      -0.00055847       0.00018132       0.00133781      -6.51895350  F
Cu      12.75063390      20.68263564       9.53148169       0.00189632       0.00065304       0.00044673      -3.12772409  T
Ni      12.93518162      11.81963288      10.86256132      -0.00073113       0.00047967       0.00048626      -6.00092485  F
Cu       8.02848954      19.65334850      14.06194196       0.00081938       0.00112507      -0.00052460      -3.20134360  T
Cu      23.39324118      14.28614838      15.73788727      -0.00077564       0.00538926      -0.00453443      -3.25855640  T
Cu      12.90694657       8.48830219       7.92849629       0.00049554      -0.00024989      -0.00008047      -2.98647957  T
Ni      21.20718792      12.71663071      16.53542710       0.00067100      -0.00257642      -0.00349088      -6.44673756  F